# vtk DataFile Version 3.0
#This file was generated by the deal.II library on 2023/5/19 at 11:45:41
ASCII
DATASET UNSTRUCTURED_GRID

POINTS 80 double
0 -3 0
1.25 -3 0
0 -2 0
1.25 -2 0
1.25 -3 0
2.5 -3 0
1.25 -2 0
2.5 -2 0
2.5 -3 0
3.75 -3 0
2.5 -2 0
3.75 -2 0
3.75 -3 0
5 -3 0
3.75 -2 0
5 -2 0
0 -2 0
1.25 -2 0
0 -1 0
1.25 -1 0
1.25 -2 0
2.5 -2 0
1.25 -1 0
2.5 -1 0
2.5 -2 0
3.75 -2 0
2.5 -1 0
3.75 -1 0
3.75 -2 0
5 -2 0
3.75 -1 0
5 -1 0
0 -1 0
1.25 -1 0
0 0 0
1.25 0 0
1.25 -1 0
2.5 -1 0
1.25 0 0
2.5 0 0
2.5 -1 0
3.75 -1 0
2.5 0 0
3.75 0 0
3.75 -1 0
5 -1 0
3.75 0 0
5 0 0
0 0 0
1.25 0 0
0 1 0
1.25 1 0
1.25 0 0
2.5 0 0
1.25 1 0
2.5 1 0
2.5 0 0
3.75 0 0
2.5 1 0
3.75 1 0
3.75 0 0
5 0 0
3.75 1 0
5 1 0
0 1 0
1.25 1 0
0 2 0
1.25 2 0
1.25 1 0
2.5 1 0
1.25 2 0
2.5 2 0
2.5 1 0
3.75 1 0
2.5 2 0
3.75 2 0
3.75 1 0
5 1 0
3.75 2 0
5 2 0

CELLS 20 100
4	0	1	3	2
4	4	5	7	6
4	8	9	11	10
4	12	13	15	14
4	16	17	19	18
4	20	21	23	22
4	24	25	27	26
4	28	29	31	30
4	32	33	35	34
4	36	37	39	38
4	40	41	43	42
4	44	45	47	46
4	48	49	51	50
4	52	53	55	54
4	56	57	59	58
4	60	61	63	62
4	64	65	67	66
4	68	69	71	70
4	72	73	75	74
4	76	77	79	78

CELL_TYPES 20
 9 9 9 9 9 9 9 9 9 9 9 9 9 9 9 9 9 9 9 9
POINT_DATA 80
SCALARS dif_solution double 1
LOOKUP_TABLE default
1.21702e-09 1.21702e-09 1.21702e-09 1.21702e-09 2.98787e-09 2.98787e-09 2.98787e-09 2.98787e-09 5.73495e-07 5.73495e-07 5.73495e-07 5.73495e-07 1.45726e-06 1.45726e-06 1.45726e-06 1.45726e-06 6.59609e-09 6.59609e-09 6.59609e-09 6.59609e-09 6.46236e-09 6.46236e-09 6.46236e-09 6.46236e-09 1.45378e-06 1.45378e-06 1.45378e-06 1.45378e-06 2.66152e-06 2.66152e-06 2.66152e-06 2.66152e-06 1.1039e-08 1.1039e-08 1.1039e-08 1.1039e-08 1.06134e-08 1.06134e-08 1.06134e-08 1.06134e-08 2.65954e-06 2.65954e-06 2.65954e-06 2.65954e-06 3.95308e-06 3.95308e-06 3.95308e-06 3.95308e-06 1.43419e-08 1.43419e-08 1.43419e-08 1.43419e-08 1.39526e-08 1.39526e-08 1.39526e-08 1.39526e-08 3.95327e-06 3.95327e-06 3.95327e-06 3.95327e-06 4.51029e-06 4.51029e-06 4.51029e-06 4.51029e-06 5.74922e-07 5.74922e-07 5.74922e-07 5.74922e-07 1.4564e-06 1.4564e-06 1.4564e-06 1.4564e-06 5.51343e-07 5.51343e-07 5.51343e-07 5.51343e-07 1.52678e-06 1.52678e-06 1.52678e-06 1.52678e-06 
